 TITLE="CE-QUAL-W2"
VARIABLES="Distance, m","Elevation, m","U(m/s)","W(m/s)","T(C)","RHO" 
ZONE T="   64.500" I= 30 J= 31 F=POINT
 0.500000E+03  0.123810E+03  0.221595E-01  0.163380E-03  0.740000E+01  0.999885E+03
 0.500000E+03  0.122080E+03  0.221595E-01  0.163380E-03  0.740000E+01  0.999885E+03
 0.500000E+03  0.119350E+03  0.233083E-01  0.000000E+00  0.740000E+01  0.999885E+03
 0.500000E+03  0.118350E+03  0.233083E-01  0.000000E+00  0.740000E+01  0.999885E+03
 0.500000E+03  0.117340E+03 -0.990000E+02 -0.990000E+02 -0.990000E+02 -0.990000E+02
 0.500000E+03  0.115340E+03 -0.990000E+02 -0.990000E+02 -0.990000E+02 -0.990000E+02
 0.500000E+03  0.113340E+03 -0.990000E+02 -0.990000E+02 -0.990000E+02 -0.990000E+02
 0.500000E+03  0.111340E+03 -0.990000E+02 -0.990000E+02 -0.990000E+02 -0.990000E+02
 0.500000E+03  0.109340E+03 -0.990000E+02 -0.990000E+02 -0.990000E+02 -0.990000E+02
 0.500000E+03  0.107340E+03 -0.990000E+02 -0.990000E+02 -0.990000E+02 -0.990000E+02
 0.500000E+03  0.105340E+03 -0.990000E+02 -0.990000E+02 -0.990000E+02 -0.990000E+02
 0.500000E+03  0.103340E+03 -0.990000E+02 -0.990000E+02 -0.990000E+02 -0.990000E+02
 0.500000E+03  0.101340E+03 -0.990000E+02 -0.990000E+02 -0.990000E+02 -0.990000E+02
 0.500000E+03  0.993396E+02 -0.990000E+02 -0.990000E+02 -0.990000E+02 -0.990000E+02
 0.500000E+03  0.973396E+02 -0.990000E+02 -0.990000E+02 -0.990000E+02 -0.990000E+02
 0.500000E+03  0.953396E+02 -0.990000E+02 -0.990000E+02 -0.990000E+02 -0.990000E+02
 0.500000E+03  0.933396E+02 -0.990000E+02 -0.990000E+02 -0.990000E+02 -0.990000E+02
 0.500000E+03  0.913396E+02 -0.990000E+02 -0.990000E+02 -0.990000E+02 -0.990000E+02
 0.500000E+03  0.893396E+02 -0.990000E+02 -0.990000E+02 -0.990000E+02 -0.990000E+02
 0.500000E+03  0.873396E+02 -0.990000E+02 -0.990000E+02 -0.990000E+02 -0.990000E+02
 0.500000E+03  0.853396E+02 -0.990000E+02 -0.990000E+02 -0.990000E+02 -0.990000E+02
 0.500000E+03  0.833396E+02 -0.990000E+02 -0.990000E+02 -0.990000E+02 -0.990000E+02
 0.500000E+03  0.813396E+02 -0.990000E+02 -0.990000E+02 -0.990000E+02 -0.990000E+02
 0.500000E+03  0.793396E+02 -0.990000E+02 -0.990000E+02 -0.990000E+02 -0.990000E+02
 0.500000E+03  0.773396E+02 -0.990000E+02 -0.990000E+02 -0.990000E+02 -0.990000E+02
 0.500000E+03  0.753396E+02 -0.990000E+02 -0.990000E+02 -0.990000E+02 -0.990000E+02
 0.500000E+03  0.733396E+02 -0.990000E+02 -0.990000E+02 -0.990000E+02 -0.990000E+02
 0.500000E+03  0.713396E+02 -0.990000E+02 -0.990000E+02 -0.990000E+02 -0.990000E+02
 0.500000E+03  0.693396E+02 -0.990000E+02 -0.990000E+02 -0.990000E+02 -0.990000E+02
 0.500000E+03  0.673396E+02 -0.990000E+02 -0.990000E+02 -0.990000E+02 -0.990000E+02
 0.100000E+04  0.123806E+03  0.135783E-01  0.135925E-05  0.740000E+01  0.999885E+03
 0.100000E+04  0.122078E+03  0.135783E-01  0.135925E-05  0.740000E+01  0.999885E+03
 0.100000E+04  0.119350E+03  0.148135E-01  0.000000E+00  0.740000E+01  0.999885E+03
 0.100000E+04  0.118350E+03  0.148135E-01  0.000000E+00  0.740000E+01  0.999885E+03
 0.100000E+04  0.117350E+03 -0.990000E+02 -0.990000E+02 -0.990000E+02 -0.990000E+02
 0.100000E+04  0.115350E+03 -0.990000E+02 -0.990000E+02 -0.990000E+02 -0.990000E+02
 0.100000E+04  0.113350E+03 -0.990000E+02 -0.990000E+02 -0.990000E+02 -0.990000E+02
 0.100000E+04  0.111350E+03 -0.990000E+02 -0.990000E+02 -0.990000E+02 -0.990000E+02
 0.100000E+04  0.109350E+03 -0.990000E+02 -0.990000E+02 -0.990000E+02 -0.990000E+02
 0.100000E+04  0.107350E+03 -0.990000E+02 -0.990000E+02 -0.990000E+02 -0.990000E+02
 0.100000E+04  0.105350E+03 -0.990000E+02 -0.990000E+02 -0.990000E+02 -0.990000E+02
 0.100000E+04  0.103350E+03 -0.990000E+02 -0.990000E+02 -0.990000E+02 -0.990000E+02
 0.100000E+04  0.101350E+03 -0.990000E+02 -0.990000E+02 -0.990000E+02 -0.990000E+02
 0.100000E+04  0.993500E+02 -0.990000E+02 -0.990000E+02 -0.990000E+02 -0.990000E+02
 0.100000E+04  0.973500E+02 -0.990000E+02 -0.990000E+02 -0.990000E+02 -0.990000E+02
 0.100000E+04  0.953500E+02 -0.990000E+02 -0.990000E+02 -0.990000E+02 -0.990000E+02
 0.100000E+04  0.933500E+02 -0.990000E+02 -0.990000E+02 -0.990000E+02 -0.990000E+02
 0.100000E+04  0.913500E+02 -0.990000E+02 -0.990000E+02 -0.990000E+02 -0.990000E+02
 0.100000E+04  0.893500E+02 -0.990000E+02 -0.990000E+02 -0.990000E+02 -0.990000E+02
 0.100000E+04  0.873500E+02 -0.990000E+02 -0.990000E+02 -0.990000E+02 -0.990000E+02
 0.100000E+04  0.853500E+02 -0.990000E+02 -0.990000E+02 -0.990000E+02 -0.990000E+02
 0.100000E+04  0.833500E+02 -0.990000E+02 -0.990000E+02 -0.990000E+02 -0.990000E+02
 0.100000E+04  0.813500E+02 -0.990000E+02 -0.990000E+02 -0.990000E+02 -0.990000E+02
 0.100000E+04  0.793500E+02 -0.990000E+02 -0.990000E+02 -0.990000E+02 -0.990000E+02
 0.100000E+04  0.773500E+02 -0.990000E+02 -0.990000E+02 -0.990000E+02 -0.990000E+02
 0.100000E+04  0.753500E+02 -0.990000E+02 -0.990000E+02 -0.990000E+02 -0.990000E+02
 0.100000E+04  0.733500E+02 -0.990000E+02 -0.990000E+02 -0.990000E+02 -0.990000E+02
 0.100000E+04  0.713500E+02 -0.990000E+02 -0.990000E+02 -0.990000E+02 -0.990000E+02
 0.100000E+04  0.693500E+02 -0.990000E+02 -0.990000E+02 -0.990000E+02 -0.990000E+02
 0.100000E+04  0.673500E+02 -0.990000E+02 -0.990000E+02 -0.990000E+02 -0.990000E+02
 0.200000E+04  0.123804E+03  0.695606E-02 -0.530584E-05  0.740000E+01  0.999885E+03
 0.200000E+04  0.122077E+03  0.695606E-02 -0.530584E-05  0.740000E+01  0.999885E+03
 0.200000E+04  0.119350E+03  0.819312E-02 -0.161185E-04  0.740000E+01  0.999885E+03
 0.200000E+04  0.117350E+03  0.856294E-02  0.000000E+00  0.730000E+01  0.999890E+03
 0.200000E+04  0.116350E+03  0.856294E-02  0.000000E+00  0.730000E+01  0.999890E+03
 0.200000E+04  0.115350E+03 -0.990000E+02 -0.990000E+02 -0.990000E+02 -0.990000E+02
 0.200000E+04  0.113350E+03 -0.990000E+02 -0.990000E+02 -0.990000E+02 -0.990000E+02
 0.200000E+04  0.111350E+03 -0.990000E+02 -0.990000E+02 -0.990000E+02 -0.990000E+02
 0.200000E+04  0.109350E+03 -0.990000E+02 -0.990000E+02 -0.990000E+02 -0.990000E+02
 0.200000E+04  0.107350E+03 -0.990000E+02 -0.990000E+02 -0.990000E+02 -0.990000E+02
 0.200000E+04  0.105350E+03 -0.990000E+02 -0.990000E+02 -0.990000E+02 -0.990000E+02
 0.200000E+04  0.103350E+03 -0.990000E+02 -0.990000E+02 -0.990000E+02 -0.990000E+02
 0.200000E+04  0.101350E+03 -0.990000E+02 -0.990000E+02 -0.990000E+02 -0.990000E+02
 0.200000E+04  0.993500E+02 -0.990000E+02 -0.990000E+02 -0.990000E+02 -0.990000E+02
 0.200000E+04  0.973500E+02 -0.990000E+02 -0.990000E+02 -0.990000E+02 -0.990000E+02
 0.200000E+04  0.953500E+02 -0.990000E+02 -0.990000E+02 -0.990000E+02 -0.990000E+02
 0.200000E+04  0.933500E+02 -0.990000E+02 -0.990000E+02 -0.990000E+02 -0.990000E+02
 0.200000E+04  0.913500E+02 -0.990000E+02 -0.990000E+02 -0.990000E+02 -0.990000E+02
 0.200000E+04  0.893500E+02 -0.990000E+02 -0.990000E+02 -0.990000E+02 -0.990000E+02
 0.200000E+04  0.873500E+02 -0.990000E+02 -0.990000E+02 -0.990000E+02 -0.990000E+02
 0.200000E+04  0.853500E+02 -0.990000E+02 -0.990000E+02 -0.990000E+02 -0.990000E+02
 0.200000E+04  0.833500E+02 -0.990000E+02 -0.990000E+02 -0.990000E+02 -0.990000E+02
 0.200000E+04  0.813500E+02 -0.990000E+02 -0.990000E+02 -0.990000E+02 -0.990000E+02
 0.200000E+04  0.793500E+02 -0.990000E+02 -0.990000E+02 -0.990000E+02 -0.990000E+02
 0.200000E+04  0.773500E+02 -0.990000E+02 -0.990000E+02 -0.990000E+02 -0.990000E+02
 0.200000E+04  0.753500E+02 -0.990000E+02 -0.990000E+02 -0.990000E+02 -0.990000E+02
 0.200000E+04  0.733500E+02 -0.990000E+02 -0.990000E+02 -0.990000E+02 -0.990000E+02
 0.200000E+04  0.713500E+02 -0.990000E+02 -0.990000E+02 -0.990000E+02 -0.990000E+02
 0.200000E+04  0.693500E+02 -0.990000E+02 -0.990000E+02 -0.990000E+02 -0.990000E+02
 0.200000E+04  0.673500E+02 -0.990000E+02 -0.990000E+02 -0.990000E+02 -0.990000E+02
 0.300000E+04  0.123802E+03  0.278837E-02 -0.396182E-05  0.740000E+01  0.999885E+03
 0.300000E+04  0.122076E+03  0.278837E-02 -0.396182E-05  0.740000E+01  0.999885E+03
 0.300000E+04  0.119350E+03  0.394027E-02 -0.829616E-05  0.740000E+01  0.999885E+03
 0.300000E+04  0.117350E+03  0.426257E-02 -0.119334E-04  0.730000E+01  0.999890E+03
 0.300000E+04  0.115350E+03  0.426192E-02  0.000000E+00  0.730000E+01  0.999890E+03
 0.300000E+04  0.114350E+03  0.426192E-02  0.000000E+00  0.730000E+01  0.999890E+03
 0.300000E+04  0.113350E+03 -0.990000E+02 -0.990000E+02 -0.990000E+02 -0.990000E+02
 0.300000E+04  0.111350E+03 -0.990000E+02 -0.990000E+02 -0.990000E+02 -0.990000E+02
 0.300000E+04  0.109350E+03 -0.990000E+02 -0.990000E+02 -0.990000E+02 -0.990000E+02
 0.300000E+04  0.107350E+03 -0.990000E+02 -0.990000E+02 -0.990000E+02 -0.990000E+02
 0.300000E+04  0.105350E+03 -0.990000E+02 -0.990000E+02 -0.990000E+02 -0.990000E+02
 0.300000E+04  0.103350E+03 -0.990000E+02 -0.990000E+02 -0.990000E+02 -0.990000E+02
 0.300000E+04  0.101350E+03 -0.990000E+02 -0.990000E+02 -0.990000E+02 -0.990000E+02
 0.300000E+04  0.993500E+02 -0.990000E+02 -0.990000E+02 -0.990000E+02 -0.990000E+02
 0.300000E+04  0.973500E+02 -0.990000E+02 -0.990000E+02 -0.990000E+02 -0.990000E+02
 0.300000E+04  0.953500E+02 -0.990000E+02 -0.990000E+02 -0.990000E+02 -0.990000E+02
 0.300000E+04  0.933500E+02 -0.990000E+02 -0.990000E+02 -0.990000E+02 -0.990000E+02
 0.300000E+04  0.913500E+02 -0.990000E+02 -0.990000E+02 -0.990000E+02 -0.990000E+02
 0.300000E+04  0.893500E+02 -0.990000E+02 -0.990000E+02 -0.990000E+02 -0.990000E+02
 0.300000E+04  0.873500E+02 -0.990000E+02 -0.990000E+02 -0.990000E+02 -0.990000E+02
 0.300000E+04  0.853500E+02 -0.990000E+02 -0.990000E+02 -0.990000E+02 -0.990000E+02
 0.300000E+04  0.833500E+02 -0.990000E+02 -0.990000E+02 -0.990000E+02 -0.990000E+02
 0.300000E+04  0.813500E+02 -0.990000E+02 -0.990000E+02 -0.990000E+02 -0.990000E+02
 0.300000E+04  0.793500E+02 -0.990000E+02 -0.990000E+02 -0.990000E+02 -0.990000E+02
 0.300000E+04  0.773500E+02 -0.990000E+02 -0.990000E+02 -0.990000E+02 -0.990000E+02
 0.300000E+04  0.753500E+02 -0.990000E+02 -0.990000E+02 -0.990000E+02 -0.990000E+02
 0.300000E+04  0.733500E+02 -0.990000E+02 -0.990000E+02 -0.990000E+02 -0.990000E+02
 0.300000E+04  0.713500E+02 -0.990000E+02 -0.990000E+02 -0.990000E+02 -0.990000E+02
 0.300000E+04  0.693500E+02 -0.990000E+02 -0.990000E+02 -0.990000E+02 -0.990000E+02
 0.300000E+04  0.673500E+02 -0.990000E+02 -0.990000E+02 -0.990000E+02 -0.990000E+02
 0.400000E+04  0.123802E+03  0.648464E-03 -0.221174E-05  0.740000E+01  0.999885E+03
 0.400000E+04  0.122076E+03  0.648464E-03 -0.221174E-05  0.740000E+01  0.999885E+03
 0.400000E+04  0.119350E+03  0.171941E-02 -0.337823E-05  0.740000E+01  0.999885E+03
 0.400000E+04  0.117350E+03  0.197637E-02 -0.384194E-05  0.730000E+01  0.999890E+03
 0.400000E+04  0.115350E+03  0.197642E-02 -0.481677E-05  0.730000E+01  0.999890E+03
 0.400000E+04  0.113350E+03  0.197611E-02  0.000000E+00  0.730000E+01  0.999890E+03
 0.400000E+04  0.112350E+03  0.197611E-02  0.000000E+00  0.730000E+01  0.999890E+03
 0.400000E+04  0.111350E+03 -0.990000E+02 -0.990000E+02 -0.990000E+02 -0.990000E+02
 0.400000E+04  0.109350E+03 -0.990000E+02 -0.990000E+02 -0.990000E+02 -0.990000E+02
 0.400000E+04  0.107350E+03 -0.990000E+02 -0.990000E+02 -0.990000E+02 -0.990000E+02
 0.400000E+04  0.105350E+03 -0.990000E+02 -0.990000E+02 -0.990000E+02 -0.990000E+02
 0.400000E+04  0.103350E+03 -0.990000E+02 -0.990000E+02 -0.990000E+02 -0.990000E+02
 0.400000E+04  0.101350E+03 -0.990000E+02 -0.990000E+02 -0.990000E+02 -0.990000E+02
 0.400000E+04  0.993500E+02 -0.990000E+02 -0.990000E+02 -0.990000E+02 -0.990000E+02
 0.400000E+04  0.973500E+02 -0.990000E+02 -0.990000E+02 -0.990000E+02 -0.990000E+02
 0.400000E+04  0.953500E+02 -0.990000E+02 -0.990000E+02 -0.990000E+02 -0.990000E+02
 0.400000E+04  0.933500E+02 -0.990000E+02 -0.990000E+02 -0.990000E+02 -0.990000E+02
 0.400000E+04  0.913500E+02 -0.990000E+02 -0.990000E+02 -0.990000E+02 -0.990000E+02
 0.400000E+04  0.893500E+02 -0.990000E+02 -0.990000E+02 -0.990000E+02 -0.990000E+02
 0.400000E+04  0.873500E+02 -0.990000E+02 -0.990000E+02 -0.990000E+02 -0.990000E+02
 0.400000E+04  0.853500E+02 -0.990000E+02 -0.990000E+02 -0.990000E+02 -0.990000E+02
 0.400000E+04  0.833500E+02 -0.990000E+02 -0.990000E+02 -0.990000E+02 -0.990000E+02
 0.400000E+04  0.813500E+02 -0.990000E+02 -0.990000E+02 -0.990000E+02 -0.990000E+02
 0.400000E+04  0.793500E+02 -0.990000E+02 -0.990000E+02 -0.990000E+02 -0.990000E+02
 0.400000E+04  0.773500E+02 -0.990000E+02 -0.990000E+02 -0.990000E+02 -0.990000E+02
 0.400000E+04  0.753500E+02 -0.990000E+02 -0.990000E+02 -0.990000E+02 -0.990000E+02
 0.400000E+04  0.733500E+02 -0.990000E+02 -0.990000E+02 -0.990000E+02 -0.990000E+02
 0.400000E+04  0.713500E+02 -0.990000E+02 -0.990000E+02 -0.990000E+02 -0.990000E+02
 0.400000E+04  0.693500E+02 -0.990000E+02 -0.990000E+02 -0.990000E+02 -0.990000E+02
 0.400000E+04  0.673500E+02 -0.990000E+02 -0.990000E+02 -0.990000E+02 -0.990000E+02
 0.500000E+04  0.123801E+03  0.152552E-04  0.438217E-06  0.740000E+01  0.999885E+03
 0.500000E+04  0.122076E+03  0.152552E-04  0.438217E-06  0.740000E+01  0.999885E+03
 0.500000E+04  0.119350E+03  0.103996E-02 -0.973683E-07  0.740000E+01  0.999885E+03
 0.500000E+04  0.117350E+03  0.127960E-02 -0.477920E-06  0.730000E+01  0.999890E+03
 0.500000E+04  0.115350E+03  0.127966E-02 -0.102871E-05  0.730000E+01  0.999890E+03
 0.500000E+04  0.113350E+03  0.127966E-02 -0.184650E-05  0.730000E+01  0.999890E+03
 0.500000E+04  0.111350E+03  0.127943E-02  0.000000E+00  0.730000E+01  0.999890E+03
 0.500000E+04  0.110350E+03  0.127943E-02  0.000000E+00  0.730000E+01  0.999890E+03
 0.500000E+04  0.109350E+03 -0.990000E+02 -0.990000E+02 -0.990000E+02 -0.990000E+02
 0.500000E+04  0.107350E+03 -0.990000E+02 -0.990000E+02 -0.990000E+02 -0.990000E+02
 0.500000E+04  0.105350E+03 -0.990000E+02 -0.990000E+02 -0.990000E+02 -0.990000E+02
 0.500000E+04  0.103350E+03 -0.990000E+02 -0.990000E+02 -0.990000E+02 -0.990000E+02
 0.500000E+04  0.101350E+03 -0.990000E+02 -0.990000E+02 -0.990000E+02 -0.990000E+02
 0.500000E+04  0.993500E+02 -0.990000E+02 -0.990000E+02 -0.990000E+02 -0.990000E+02
 0.500000E+04  0.973500E+02 -0.990000E+02 -0.990000E+02 -0.990000E+02 -0.990000E+02
 0.500000E+04  0.953500E+02 -0.990000E+02 -0.990000E+02 -0.990000E+02 -0.990000E+02
 0.500000E+04  0.933500E+02 -0.990000E+02 -0.990000E+02 -0.990000E+02 -0.990000E+02
 0.500000E+04  0.913500E+02 -0.990000E+02 -0.990000E+02 -0.990000E+02 -0.990000E+02
 0.500000E+04  0.893500E+02 -0.990000E+02 -0.990000E+02 -0.990000E+02 -0.990000E+02
 0.500000E+04  0.873500E+02 -0.990000E+02 -0.990000E+02 -0.990000E+02 -0.990000E+02
 0.500000E+04  0.853500E+02 -0.990000E+02 -0.990000E+02 -0.990000E+02 -0.990000E+02
 0.500000E+04  0.833500E+02 -0.990000E+02 -0.990000E+02 -0.990000E+02 -0.990000E+02
 0.500000E+04  0.813500E+02 -0.990000E+02 -0.990000E+02 -0.990000E+02 -0.990000E+02
 0.500000E+04  0.793500E+02 -0.990000E+02 -0.990000E+02 -0.990000E+02 -0.990000E+02
 0.500000E+04  0.773500E+02 -0.990000E+02 -0.990000E+02 -0.990000E+02 -0.990000E+02
 0.500000E+04  0.753500E+02 -0.990000E+02 -0.990000E+02 -0.990000E+02 -0.990000E+02
 0.500000E+04  0.733500E+02 -0.990000E+02 -0.990000E+02 -0.990000E+02 -0.990000E+02
 0.500000E+04  0.713500E+02 -0.990000E+02 -0.990000E+02 -0.990000E+02 -0.990000E+02
 0.500000E+04  0.693500E+02 -0.990000E+02 -0.990000E+02 -0.990000E+02 -0.990000E+02
 0.500000E+04  0.673500E+02 -0.990000E+02 -0.990000E+02 -0.990000E+02 -0.990000E+02
 0.600000E+04  0.123801E+03 -0.138064E-03  0.140916E-05  0.740000E+01  0.999885E+03
 0.600000E+04  0.122076E+03 -0.138064E-03  0.140916E-05  0.740000E+01  0.999885E+03
 0.600000E+04  0.119350E+03  0.876964E-03  0.950384E-06  0.740000E+01  0.999885E+03
 0.600000E+04  0.117350E+03  0.112949E-02  0.249028E-06  0.730000E+01  0.999890E+03
 0.600000E+04  0.115350E+03  0.112954E-02 -0.561270E-06  0.730000E+01  0.999890E+03
 0.600000E+04  0.113350E+03  0.112954E-02 -0.125214E-05  0.730000E+01  0.999890E+03
 0.600000E+04  0.111350E+03  0.112954E-02 -0.194909E-05  0.730000E+01  0.999890E+03
 0.600000E+04  0.109350E+03  0.112933E-02  0.000000E+00  0.730000E+01  0.999890E+03
 0.600000E+04  0.108350E+03  0.112933E-02  0.000000E+00  0.730000E+01  0.999890E+03
 0.600000E+04  0.107350E+03 -0.990000E+02 -0.990000E+02 -0.990000E+02 -0.990000E+02
 0.600000E+04  0.105350E+03 -0.990000E+02 -0.990000E+02 -0.990000E+02 -0.990000E+02
 0.600000E+04  0.103350E+03 -0.990000E+02 -0.990000E+02 -0.990000E+02 -0.990000E+02
 0.600000E+04  0.101350E+03 -0.990000E+02 -0.990000E+02 -0.990000E+02 -0.990000E+02
 0.600000E+04  0.993500E+02 -0.990000E+02 -0.990000E+02 -0.990000E+02 -0.990000E+02
 0.600000E+04  0.973500E+02 -0.990000E+02 -0.990000E+02 -0.990000E+02 -0.990000E+02
 0.600000E+04  0.953500E+02 -0.990000E+02 -0.990000E+02 -0.990000E+02 -0.990000E+02
 0.600000E+04  0.933500E+02 -0.990000E+02 -0.990000E+02 -0.990000E+02 -0.990000E+02
 0.600000E+04  0.913500E+02 -0.990000E+02 -0.990000E+02 -0.990000E+02 -0.990000E+02
 0.600000E+04  0.893500E+02 -0.990000E+02 -0.990000E+02 -0.990000E+02 -0.990000E+02
 0.600000E+04  0.873500E+02 -0.990000E+02 -0.990000E+02 -0.990000E+02 -0.990000E+02
 0.600000E+04  0.853500E+02 -0.990000E+02 -0.990000E+02 -0.990000E+02 -0.990000E+02
 0.600000E+04  0.833500E+02 -0.990000E+02 -0.990000E+02 -0.990000E+02 -0.990000E+02
 0.600000E+04  0.813500E+02 -0.990000E+02 -0.990000E+02 -0.990000E+02 -0.990000E+02
 0.600000E+04  0.793500E+02 -0.990000E+02 -0.990000E+02 -0.990000E+02 -0.990000E+02
 0.600000E+04  0.773500E+02 -0.990000E+02 -0.990000E+02 -0.990000E+02 -0.990000E+02
 0.600000E+04  0.753500E+02 -0.990000E+02 -0.990000E+02 -0.990000E+02 -0.990000E+02
 0.600000E+04  0.733500E+02 -0.990000E+02 -0.990000E+02 -0.990000E+02 -0.990000E+02
 0.600000E+04  0.713500E+02 -0.990000E+02 -0.990000E+02 -0.990000E+02 -0.990000E+02
 0.600000E+04  0.693500E+02 -0.990000E+02 -0.990000E+02 -0.990000E+02 -0.990000E+02
 0.600000E+04  0.673500E+02 -0.990000E+02 -0.990000E+02 -0.990000E+02 -0.990000E+02
 0.700000E+04  0.123801E+03 -0.349751E-03  0.823579E-06  0.740000E+01  0.999885E+03
 0.700000E+04  0.122075E+03 -0.349751E-03  0.823579E-06  0.740000E+01  0.999885E+03
 0.700000E+04  0.119350E+03  0.683759E-03  0.573826E-06  0.740000E+01  0.999885E+03
 0.700000E+04  0.117350E+03  0.935078E-03  0.761564E-07  0.730000E+01  0.999890E+03
 0.700000E+04  0.115350E+03  0.935135E-03 -0.509952E-06  0.730000E+01  0.999890E+03
 0.700000E+04  0.113350E+03  0.935135E-03 -0.105909E-05  0.730000E+01  0.999890E+03
 0.700000E+04  0.111350E+03  0.935135E-03 -0.118554E-05  0.730000E+01  0.999890E+03
 0.700000E+04  0.109350E+03  0.935135E-03 -0.153990E-05  0.730000E+01  0.999890E+03
 0.700000E+04  0.107350E+03  0.934939E-03  0.000000E+00  0.720000E+01  0.999895E+03
 0.700000E+04  0.106350E+03  0.934939E-03  0.000000E+00  0.720000E+01  0.999895E+03
 0.700000E+04  0.105350E+03 -0.990000E+02 -0.990000E+02 -0.990000E+02 -0.990000E+02
 0.700000E+04  0.103350E+03 -0.990000E+02 -0.990000E+02 -0.990000E+02 -0.990000E+02
 0.700000E+04  0.101350E+03 -0.990000E+02 -0.990000E+02 -0.990000E+02 -0.990000E+02
 0.700000E+04  0.993500E+02 -0.990000E+02 -0.990000E+02 -0.990000E+02 -0.990000E+02
 0.700000E+04  0.973500E+02 -0.990000E+02 -0.990000E+02 -0.990000E+02 -0.990000E+02
 0.700000E+04  0.953500E+02 -0.990000E+02 -0.990000E+02 -0.990000E+02 -0.990000E+02
 0.700000E+04  0.933500E+02 -0.990000E+02 -0.990000E+02 -0.990000E+02 -0.990000E+02
 0.700000E+04  0.913500E+02 -0.990000E+02 -0.990000E+02 -0.990000E+02 -0.990000E+02
 0.700000E+04  0.893500E+02 -0.990000E+02 -0.990000E+02 -0.990000E+02 -0.990000E+02
 0.700000E+04  0.873500E+02 -0.990000E+02 -0.990000E+02 -0.990000E+02 -0.990000E+02
 0.700000E+04  0.853500E+02 -0.990000E+02 -0.990000E+02 -0.990000E+02 -0.990000E+02
 0.700000E+04  0.833500E+02 -0.990000E+02 -0.990000E+02 -0.990000E+02 -0.990000E+02
 0.700000E+04  0.813500E+02 -0.990000E+02 -0.990000E+02 -0.990000E+02 -0.990000E+02
 0.700000E+04  0.793500E+02 -0.990000E+02 -0.990000E+02 -0.990000E+02 -0.990000E+02
 0.700000E+04  0.773500E+02 -0.990000E+02 -0.990000E+02 -0.990000E+02 -0.990000E+02
 0.700000E+04  0.753500E+02 -0.990000E+02 -0.990000E+02 -0.990000E+02 -0.990000E+02
 0.700000E+04  0.733500E+02 -0.990000E+02 -0.990000E+02 -0.990000E+02 -0.990000E+02
 0.700000E+04  0.713500E+02 -0.990000E+02 -0.990000E+02 -0.990000E+02 -0.990000E+02
 0.700000E+04  0.693500E+02 -0.990000E+02 -0.990000E+02 -0.990000E+02 -0.990000E+02
 0.700000E+04  0.673500E+02 -0.990000E+02 -0.990000E+02 -0.990000E+02 -0.990000E+02
 0.800000E+04  0.123801E+03 -0.561869E-03 -0.141017E-06  0.740000E+01  0.999885E+03
 0.800000E+04  0.122075E+03 -0.561869E-03 -0.141017E-06  0.740000E+01  0.999885E+03
 0.800000E+04  0.119350E+03  0.478063E-03 -0.130651E-06  0.740000E+01  0.999885E+03
 0.800000E+04  0.117350E+03  0.718920E-03  0.140578E-07  0.730000E+01  0.999890E+03
 0.800000E+04  0.115350E+03  0.718975E-03  0.799068E-07  0.730000E+01  0.999890E+03
 0.800000E+04  0.113350E+03  0.718975E-03  0.296770E-08  0.730000E+01  0.999890E+03
 0.800000E+04  0.111350E+03  0.718975E-03 -0.110609E-06  0.730000E+01  0.999890E+03
 0.800000E+04  0.109350E+03  0.718975E-03 -0.112854E-06  0.730000E+01  0.999890E+03
 0.800000E+04  0.107350E+03  0.718846E-03  0.000000E+00  0.720000E+01  0.999895E+03
 0.800000E+04  0.106350E+03  0.718846E-03  0.000000E+00  0.720000E+01  0.999895E+03
 0.800000E+04  0.105350E+03 -0.990000E+02 -0.990000E+02 -0.990000E+02 -0.990000E+02
 0.800000E+04  0.103350E+03 -0.990000E+02 -0.990000E+02 -0.990000E+02 -0.990000E+02
 0.800000E+04  0.101350E+03 -0.990000E+02 -0.990000E+02 -0.990000E+02 -0.990000E+02
 0.800000E+04  0.993500E+02 -0.990000E+02 -0.990000E+02 -0.990000E+02 -0.990000E+02
 0.800000E+04  0.973500E+02 -0.990000E+02 -0.990000E+02 -0.990000E+02 -0.990000E+02
 0.800000E+04  0.953500E+02 -0.990000E+02 -0.990000E+02 -0.990000E+02 -0.990000E+02
 0.800000E+04  0.933500E+02 -0.990000E+02 -0.990000E+02 -0.990000E+02 -0.990000E+02
 0.800000E+04  0.913500E+02 -0.990000E+02 -0.990000E+02 -0.990000E+02 -0.990000E+02
 0.800000E+04  0.893500E+02 -0.990000E+02 -0.990000E+02 -0.990000E+02 -0.990000E+02
 0.800000E+04  0.873500E+02 -0.990000E+02 -0.990000E+02 -0.990000E+02 -0.990000E+02
 0.800000E+04  0.853500E+02 -0.990000E+02 -0.990000E+02 -0.990000E+02 -0.990000E+02
 0.800000E+04  0.833500E+02 -0.990000E+02 -0.990000E+02 -0.990000E+02 -0.990000E+02
 0.800000E+04  0.813500E+02 -0.990000E+02 -0.990000E+02 -0.990000E+02 -0.990000E+02
 0.800000E+04  0.793500E+02 -0.990000E+02 -0.990000E+02 -0.990000E+02 -0.990000E+02
 0.800000E+04  0.773500E+02 -0.990000E+02 -0.990000E+02 -0.990000E+02 -0.990000E+02
 0.800000E+04  0.753500E+02 -0.990000E+02 -0.990000E+02 -0.990000E+02 -0.990000E+02
 0.800000E+04  0.733500E+02 -0.990000E+02 -0.990000E+02 -0.990000E+02 -0.990000E+02
 0.800000E+04  0.713500E+02 -0.990000E+02 -0.990000E+02 -0.990000E+02 -0.990000E+02
 0.800000E+04  0.693500E+02 -0.990000E+02 -0.990000E+02 -0.990000E+02 -0.990000E+02
 0.800000E+04  0.673500E+02 -0.990000E+02 -0.990000E+02 -0.990000E+02 -0.990000E+02
 0.900000E+04  0.123801E+03 -0.685457E-03  0.121572E-06  0.740000E+01  0.999885E+03
 0.900000E+04  0.122075E+03 -0.685457E-03  0.121572E-06  0.740000E+01  0.999885E+03
 0.900000E+04  0.119350E+03  0.351527E-03  0.810311E-07  0.740000E+01  0.999885E+03
 0.900000E+04  0.117350E+03  0.590251E-03  0.170112E-06  0.730000E+01  0.999890E+03
 0.900000E+04  0.115350E+03  0.590306E-03  0.242553E-06  0.730000E+01  0.999890E+03
 0.900000E+04  0.113350E+03  0.590306E-03  0.109873E-06  0.730000E+01  0.999890E+03
 0.900000E+04  0.111350E+03  0.590306E-03 -0.294037E-06  0.730000E+01  0.999890E+03
 0.900000E+04  0.109350E+03  0.590306E-03 -0.580905E-06  0.730000E+01  0.999890E+03
 0.900000E+04  0.107350E+03  0.590306E-03 -0.958684E-06  0.720000E+01  0.999895E+03
 0.900000E+04  0.105350E+03  0.590190E-03  0.000000E+00  0.710000E+01  0.999900E+03
 0.900000E+04  0.104350E+03  0.590190E-03  0.000000E+00  0.710000E+01  0.999900E+03
 0.900000E+04  0.103350E+03 -0.990000E+02 -0.990000E+02 -0.990000E+02 -0.990000E+02
 0.900000E+04  0.101350E+03 -0.990000E+02 -0.990000E+02 -0.990000E+02 -0.990000E+02
 0.900000E+04  0.993500E+02 -0.990000E+02 -0.990000E+02 -0.990000E+02 -0.990000E+02
 0.900000E+04  0.973500E+02 -0.990000E+02 -0.990000E+02 -0.990000E+02 -0.990000E+02
 0.900000E+04  0.953500E+02 -0.990000E+02 -0.990000E+02 -0.990000E+02 -0.990000E+02
 0.900000E+04  0.933500E+02 -0.990000E+02 -0.990000E+02 -0.990000E+02 -0.990000E+02
 0.900000E+04  0.913500E+02 -0.990000E+02 -0.990000E+02 -0.990000E+02 -0.990000E+02
 0.900000E+04  0.893500E+02 -0.990000E+02 -0.990000E+02 -0.990000E+02 -0.990000E+02
 0.900000E+04  0.873500E+02 -0.990000E+02 -0.990000E+02 -0.990000E+02 -0.990000E+02
 0.900000E+04  0.853500E+02 -0.990000E+02 -0.990000E+02 -0.990000E+02 -0.990000E+02
 0.900000E+04  0.833500E+02 -0.990000E+02 -0.990000E+02 -0.990000E+02 -0.990000E+02
 0.900000E+04  0.813500E+02 -0.990000E+02 -0.990000E+02 -0.990000E+02 -0.990000E+02
 0.900000E+04  0.793500E+02 -0.990000E+02 -0.990000E+02 -0.990000E+02 -0.990000E+02
 0.900000E+04  0.773500E+02 -0.990000E+02 -0.990000E+02 -0.990000E+02 -0.990000E+02
 0.900000E+04  0.753500E+02 -0.990000E+02 -0.990000E+02 -0.990000E+02 -0.990000E+02
 0.900000E+04  0.733500E+02 -0.990000E+02 -0.990000E+02 -0.990000E+02 -0.990000E+02
 0.900000E+04  0.713500E+02 -0.990000E+02 -0.990000E+02 -0.990000E+02 -0.990000E+02
 0.900000E+04  0.693500E+02 -0.990000E+02 -0.990000E+02 -0.990000E+02 -0.990000E+02
 0.900000E+04  0.673500E+02 -0.990000E+02 -0.990000E+02 -0.990000E+02 -0.990000E+02
 0.100000E+05  0.123800E+03 -0.777862E-03 -0.221153E-07  0.740000E+01  0.999885E+03
 0.100000E+05  0.122075E+03 -0.777862E-03 -0.221153E-07  0.740000E+01  0.999885E+03
 0.100000E+05  0.119350E+03  0.253736E-03 -0.106754E-06  0.740000E+01  0.999885E+03
 0.100000E+05  0.117350E+03  0.487471E-03 -0.704760E-07  0.730000E+01  0.999890E+03
 0.100000E+05  0.115350E+03  0.487524E-03 -0.195124E-07  0.730000E+01  0.999890E+03
 0.100000E+05  0.113350E+03  0.487524E-03 -0.251751E-07  0.730000E+01  0.999890E+03
 0.100000E+05  0.111350E+03  0.487524E-03 -0.158604E-06  0.730000E+01  0.999890E+03
 0.100000E+05  0.109350E+03  0.487524E-03 -0.366304E-06  0.730000E+01  0.999890E+03
 0.100000E+05  0.107350E+03  0.487524E-03 -0.612698E-06  0.720000E+01  0.999895E+03
 0.100000E+05  0.105350E+03  0.487524E-03 -0.852988E-06  0.710000E+01  0.999900E+03
 0.100000E+05  0.103350E+03  0.487422E-03  0.000000E+00  0.700000E+01  0.999904E+03
 0.100000E+05  0.102350E+03  0.487422E-03  0.000000E+00  0.700000E+01  0.999904E+03
 0.100000E+05  0.101350E+03 -0.990000E+02 -0.990000E+02 -0.990000E+02 -0.990000E+02
 0.100000E+05  0.993500E+02 -0.990000E+02 -0.990000E+02 -0.990000E+02 -0.990000E+02
 0.100000E+05  0.973500E+02 -0.990000E+02 -0.990000E+02 -0.990000E+02 -0.990000E+02
 0.100000E+05  0.953500E+02 -0.990000E+02 -0.990000E+02 -0.990000E+02 -0.990000E+02
 0.100000E+05  0.933500E+02 -0.990000E+02 -0.990000E+02 -0.990000E+02 -0.990000E+02
 0.100000E+05  0.913500E+02 -0.990000E+02 -0.990000E+02 -0.990000E+02 -0.990000E+02
 0.100000E+05  0.893500E+02 -0.990000E+02 -0.990000E+02 -0.990000E+02 -0.990000E+02
 0.100000E+05  0.873500E+02 -0.990000E+02 -0.990000E+02 -0.990000E+02 -0.990000E+02
 0.100000E+05  0.853500E+02 -0.990000E+02 -0.990000E+02 -0.990000E+02 -0.990000E+02
 0.100000E+05  0.833500E+02 -0.990000E+02 -0.990000E+02 -0.990000E+02 -0.990000E+02
 0.100000E+05  0.813500E+02 -0.990000E+02 -0.990000E+02 -0.990000E+02 -0.990000E+02
 0.100000E+05  0.793500E+02 -0.990000E+02 -0.990000E+02 -0.990000E+02 -0.990000E+02
 0.100000E+05  0.773500E+02 -0.990000E+02 -0.990000E+02 -0.990000E+02 -0.990000E+02
 0.100000E+05  0.753500E+02 -0.990000E+02 -0.990000E+02 -0.990000E+02 -0.990000E+02
 0.100000E+05  0.733500E+02 -0.990000E+02 -0.990000E+02 -0.990000E+02 -0.990000E+02
 0.100000E+05  0.713500E+02 -0.990000E+02 -0.990000E+02 -0.990000E+02 -0.990000E+02
 0.100000E+05  0.693500E+02 -0.990000E+02 -0.990000E+02 -0.990000E+02 -0.990000E+02
 0.100000E+05  0.673500E+02 -0.990000E+02 -0.990000E+02 -0.990000E+02 -0.990000E+02
 0.110000E+05  0.123800E+03 -0.845252E-03 -0.483718E-06  0.740000E+01  0.999885E+03
 0.110000E+05  0.122075E+03 -0.845252E-03 -0.483718E-06  0.740000E+01  0.999885E+03
 0.110000E+05  0.119350E+03  0.188607E-03 -0.548676E-06  0.740000E+01  0.999885E+03
 0.110000E+05  0.117350E+03  0.424645E-03 -0.531319E-06  0.730000E+01  0.999890E+03
 0.110000E+05  0.115350E+03  0.424699E-03 -0.596355E-06  0.730000E+01  0.999890E+03
 0.110000E+05  0.113350E+03  0.424699E-03 -0.692489E-06  0.730000E+01  0.999890E+03
 0.110000E+05  0.111350E+03  0.424699E-03 -0.621869E-06  0.730000E+01  0.999890E+03
 0.110000E+05  0.109350E+03  0.424699E-03 -0.398817E-06  0.730000E+01  0.999890E+03
 0.110000E+05  0.107350E+03  0.424699E-03 -0.157282E-06  0.720000E+01  0.999895E+03
 0.110000E+05  0.105350E+03  0.424699E-03 -0.509155E-07  0.710000E+01  0.999900E+03
 0.110000E+05  0.103350E+03  0.424617E-03  0.000000E+00  0.700000E+01  0.999904E+03
 0.110000E+05  0.102350E+03  0.424617E-03  0.000000E+00  0.700000E+01  0.999904E+03
 0.110000E+05  0.101350E+03 -0.990000E+02 -0.990000E+02 -0.990000E+02 -0.990000E+02
 0.110000E+05  0.993500E+02 -0.990000E+02 -0.990000E+02 -0.990000E+02 -0.990000E+02
 0.110000E+05  0.973500E+02 -0.990000E+02 -0.990000E+02 -0.990000E+02 -0.990000E+02
 0.110000E+05  0.953500E+02 -0.990000E+02 -0.990000E+02 -0.990000E+02 -0.990000E+02
 0.110000E+05  0.933500E+02 -0.990000E+02 -0.990000E+02 -0.990000E+02 -0.990000E+02
 0.110000E+05  0.913500E+02 -0.990000E+02 -0.990000E+02 -0.990000E+02 -0.990000E+02
 0.110000E+05  0.893500E+02 -0.990000E+02 -0.990000E+02 -0.990000E+02 -0.990000E+02
 0.110000E+05  0.873500E+02 -0.990000E+02 -0.990000E+02 -0.990000E+02 -0.990000E+02
 0.110000E+05  0.853500E+02 -0.990000E+02 -0.990000E+02 -0.990000E+02 -0.990000E+02
 0.110000E+05  0.833500E+02 -0.990000E+02 -0.990000E+02 -0.990000E+02 -0.990000E+02
 0.110000E+05  0.813500E+02 -0.990000E+02 -0.990000E+02 -0.990000E+02 -0.990000E+02
 0.110000E+05  0.793500E+02 -0.990000E+02 -0.990000E+02 -0.990000E+02 -0.990000E+02
 0.110000E+05  0.773500E+02 -0.990000E+02 -0.990000E+02 -0.990000E+02 -0.990000E+02